; md.mdp — 生产 MD。演示默认 1 ns（nsteps=500000）；正式研究改 50–100 ns 并在报告中注明时长
title           = Production MD
integrator      = md
nsteps          = 500000
dt              = 0.002
nstxout         = 0
nstvout         = 0
nstfout         = 0
nstenergy       = 5000
nstlog          = 5000
nstxout-compressed = 5000
compressed-x-grps  = System
continuation    = yes
constraint_algorithm = lincs
constraints     = h-bonds
lincs_iter      = 1
lincs_order     = 4
cutoff-scheme   = Verlet
ns_type         = grid
coulombtype     = PME
rcoulomb        = 1.0
rvdw            = 1.0
pbc             = xyz
DispCorr        = EnerPres
tcoupl          = V-rescale
tc-grps         = Protein __LIG__ Water_and_ions
tau_t           = 0.1     0.1     0.1
ref_t           = 300     300     300
pcoupl          = Parrinello-Rahman
pcoupltype      = isotropic
tau_p           = 2.0
ref_p           = 1.0
compressibility = 4.5e-5
gen_vel         = no
