; nvt.mdp — 等温平衡 100 ps（位置限制），300 K
; tc-grps 用默认组（配体组名由脚本把 __LIG__ 替换为实际残基名，如 JZ4）
title           = NVT equilibration
define          = -DPOSRES
integrator      = md
nsteps          = 50000
dt              = 0.002
nstxout         = 500
nstvout         = 500
nstenergy       = 500
nstlog          = 500
continuation    = no
constraint_algorithm = lincs
constraints     = h-bonds
lincs_iter      = 1
lincs_order     = 4
cutoff-scheme   = Verlet
ns_type         = grid
coulombtype     = PME
rcoulomb        = 1.0
rvdw            = 1.0
pbc             = xyz
DispCorr        = EnerPres
tcoupl          = V-rescale
tc-grps         = Protein __LIG__ Water_and_ions
tau_t           = 0.1     0.1     0.1
ref_t           = 300     300     300
pcoupl          = no
gen_vel         = yes
gen_temp        = 300
